Title="TOUGHREACT V3.60demo: Gas Species Concentrations: Mole fraction"
Variables= "X(m)"   "Y(m)"   "Z(m)"     "P(bar)"       "T(C)"     "SatGas"         "RH"       "co2(g)"
Zone T= "0.00000000E+00 sec" I=       1 J=       1 K=       1 F=Point
       0.1000       0.5000      -0.5000  8.05900E+02  190.000  0.00000E+00  1.0000  1.2461E-18
Zone T= "4.32136000E+03 sec" I=       1 J=       1 K=       1 F=Point
       0.1000       0.5000      -0.5000  8.05900E+02  190.000  0.00000E+00  1.0000  2.3170E-10
Zone T= "8.64136000E+03 sec" I=       1 J=       1 K=       1 F=Point
       0.1000       0.5000      -0.5000  8.05900E+02  190.000  0.00000E+00  1.0000  5.4349E-10
Zone T= "1.29613600E+04 sec" I=       1 J=       1 K=       1 F=Point
       0.1000       0.5000      -0.5000  8.05900E+02  190.000  0.00000E+00  1.0000  8.6690E-10
Zone T= "1.72813600E+04 sec" I=       1 J=       1 K=       1 F=Point
       0.1000       0.5000      -0.5000  8.05900E+02  190.000  0.00000E+00  1.0000  1.1662E-09
Zone T= "2.16013600E+04 sec" I=       1 J=       1 K=       1 F=Point
       0.1000       0.5000      -0.5000  8.05900E+02  190.000  0.00000E+00  1.0000  1.4241E-09
Zone T= "2.59213600E+04 sec" I=       1 J=       1 K=       1 F=Point
       0.1000       0.5000      -0.5000  8.05900E+02  190.000  0.00000E+00  1.0000  1.6360E-09
Zone T= "3.02413600E+04 sec" I=       1 J=       1 K=       1 F=Point
       0.1000       0.5000      -0.5000  8.05900E+02  190.000  0.00000E+00  1.0000  1.8040E-09
Zone T= "3.45613600E+04 sec" I=       1 J=       1 K=       1 F=Point
       0.1000       0.5000      -0.5000  8.05900E+02  190.000  0.00000E+00  1.0000  1.9342E-09
Zone T= "3.88813600E+04 sec" I=       1 J=       1 K=       1 F=Point
       0.1000       0.5000      -0.5000  8.05900E+02  190.000  0.00000E+00  1.0000  2.0333E-09
Zone T= "4.32013600E+04 sec" I=       1 J=       1 K=       1 F=Point
       0.1000       0.5000      -0.5000  8.05900E+02  190.000  0.00000E+00  1.0000  2.1077E-09
Zone T= "4.75213600E+04 sec" I=       1 J=       1 K=       1 F=Point
       0.1000       0.5000      -0.5000  8.05900E+02  190.000  0.00000E+00  1.0000  2.1632E-09
Zone T= "5.18413600E+04 sec" I=       1 J=       1 K=       1 F=Point
       0.1000       0.5000      -0.5000  8.05900E+02  190.000  0.00000E+00  1.0000  2.2042E-09
Zone T= "5.61613600E+04 sec" I=       1 J=       1 K=       1 F=Point
       0.1000       0.5000      -0.5000  8.05900E+02  190.000  0.00000E+00  1.0000  2.2344E-09
Zone T= "6.04813600E+04 sec" I=       1 J=       1 K=       1 F=Point
       0.1000       0.5000      -0.5000  8.05900E+02  190.000  0.00000E+00  1.0000  2.2565E-09
Zone T= "6.48013600E+04 sec" I=       1 J=       1 K=       1 F=Point
       0.1000       0.5000      -0.5000  8.05900E+02  190.000  0.00000E+00  1.0000  2.2727E-09
Zone T= "6.91213600E+04 sec" I=       1 J=       1 K=       1 F=Point
       0.1000       0.5000      -0.5000  8.05900E+02  190.000  0.00000E+00  1.0000  2.2846E-09
Zone T= "7.34413600E+04 sec" I=       1 J=       1 K=       1 F=Point
       0.1000       0.5000      -0.5000  8.05900E+02  190.000  0.00000E+00  1.0000  2.2932E-09
Zone T= "7.77613600E+04 sec" I=       1 J=       1 K=       1 F=Point
       0.1000       0.5000      -0.5000  8.05900E+02  190.000  0.00000E+00  1.0000  2.2995E-09
Zone T= "8.20813600E+04 sec" I=       1 J=       1 K=       1 F=Point
       0.1000       0.5000      -0.5000  8.05900E+02  190.000  0.00000E+00  1.0000  2.3042E-09
Zone T= "8.63927200E+04 sec" I=       1 J=       1 K=       1 F=Point
       0.1000       0.5000      -0.5000  8.05900E+02  190.000  0.00000E+00  1.0000  2.3075E-09
Zone T= "8.64013600E+04 sec" I=       1 J=       1 K=       1 F=Point
       0.1000       0.5000      -0.5000  8.05900E+02  190.000  0.00000E+00  1.0000  2.3075E-09
Zone T= "9.07213600E+04 sec" I=       1 J=       1 K=       1 F=Point
       0.1000       0.5000      -0.5000  8.05900E+02  190.000  0.00000E+00  1.0000  2.3100E-09
Zone T= "9.50413600E+04 sec" I=       1 J=       1 K=       1 F=Point
       0.1000       0.5000      -0.5000  8.05900E+02  190.000  0.00000E+00  1.0000  2.3119E-09
Zone T= "9.93613600E+04 sec" I=       1 J=       1 K=       1 F=Point
       0.1000       0.5000      -0.5000  8.05900E+02  190.000  0.00000E+00  1.0000  2.3133E-09
Zone T= "1.03681360E+05 sec" I=       1 J=       1 K=       1 F=Point
       0.1000       0.5000      -0.5000  8.05900E+02  190.000  0.00000E+00  1.0000  2.3144E-09
Zone T= "1.08001360E+05 sec" I=       1 J=       1 K=       1 F=Point
       0.1000       0.5000      -0.5000  8.05900E+02  190.000  0.00000E+00  1.0000  2.3153E-09
Zone T= "1.12321360E+05 sec" I=       1 J=       1 K=       1 F=Point
       0.1000       0.5000      -0.5000  8.05900E+02  190.000  0.00000E+00  1.0000  2.3157E-09
Zone T= "1.16641360E+05 sec" I=       1 J=       1 K=       1 F=Point
       0.1000       0.5000      -0.5000  8.05900E+02  190.000  0.00000E+00  1.0000  2.3157E-09
Zone T= "1.20961360E+05 sec" I=       1 J=       1 K=       1 F=Point
       0.1000       0.5000      -0.5000  8.05900E+02  190.000  0.00000E+00  1.0000  2.3156E-09
Zone T= "1.25281360E+05 sec" I=       1 J=       1 K=       1 F=Point
       0.1000       0.5000      -0.5000  8.05900E+02  190.000  0.00000E+00  1.0000  2.3156E-09
Zone T= "1.29601360E+05 sec" I=       1 J=       1 K=       1 F=Point
       0.1000       0.5000      -0.5000  8.05900E+02  190.000  0.00000E+00  1.0000  2.3157E-09
Zone T= "1.33921360E+05 sec" I=       1 J=       1 K=       1 F=Point
       0.1000       0.5000      -0.5000  8.05900E+02  190.000  0.00000E+00  1.0000  2.3157E-09
Zone T= "1.38241360E+05 sec" I=       1 J=       1 K=       1 F=Point
       0.1000       0.5000      -0.5000  8.05900E+02  190.000  0.00000E+00  1.0000  2.3155E-09
Zone T= "1.42561360E+05 sec" I=       1 J=       1 K=       1 F=Point
       0.1000       0.5000      -0.5000  8.05900E+02  190.000  0.00000E+00  1.0000  2.3153E-09
Zone T= "1.46881360E+05 sec" I=       1 J=       1 K=       1 F=Point
       0.1000       0.5000      -0.5000  8.05900E+02  190.000  0.00000E+00  1.0000  2.3151E-09
Zone T= "1.51201360E+05 sec" I=       1 J=       1 K=       1 F=Point
       0.1000       0.5000      -0.5000  8.05900E+02  190.000  0.00000E+00  1.0000  2.3150E-09
Zone T= "1.55521360E+05 sec" I=       1 J=       1 K=       1 F=Point
       0.1000       0.5000      -0.5000  8.05900E+02  190.000  0.00000E+00  1.0000  2.3148E-09
Zone T= "1.59841360E+05 sec" I=       1 J=       1 K=       1 F=Point
       0.1000       0.5000      -0.5000  8.05900E+02  190.000  0.00000E+00  1.0000  2.3147E-09
Zone T= "1.64161360E+05 sec" I=       1 J=       1 K=       1 F=Point
       0.1000       0.5000      -0.5000  8.05900E+02  190.000  0.00000E+00  1.0000  2.3146E-09
Zone T= "1.68481360E+05 sec" I=       1 J=       1 K=       1 F=Point
       0.1000       0.5000      -0.5000  8.05900E+02  190.000  0.00000E+00  1.0000  2.3145E-09
Zone T= "1.72801360E+05 sec" I=       1 J=       1 K=       1 F=Point
       0.1000       0.5000      -0.5000  8.05900E+02  190.000  0.00000E+00  1.0000  2.3145E-09
Zone T= "1.77121360E+05 sec" I=       1 J=       1 K=       1 F=Point
       0.1000       0.5000      -0.5000  8.05900E+02  190.000  0.00000E+00  1.0000  2.3144E-09
Zone T= "1.81441360E+05 sec" I=       1 J=       1 K=       1 F=Point
       0.1000       0.5000      -0.5000  8.05900E+02  190.000  0.00000E+00  1.0000  2.3144E-09
Zone T= "1.85761360E+05 sec" I=       1 J=       1 K=       1 F=Point
       0.1000       0.5000      -0.5000  8.05900E+02  190.000  0.00000E+00  1.0000  2.3144E-09
Zone T= "1.90081360E+05 sec" I=       1 J=       1 K=       1 F=Point
       0.1000       0.5000      -0.5000  8.05900E+02  190.000  0.00000E+00  1.0000  2.3143E-09
Zone T= "1.94401360E+05 sec" I=       1 J=       1 K=       1 F=Point
       0.1000       0.5000      -0.5000  8.05900E+02  190.000  0.00000E+00  1.0000  2.3143E-09
Zone T= "1.98721360E+05 sec" I=       1 J=       1 K=       1 F=Point
       0.1000       0.5000      -0.5000  8.05900E+02  190.000  0.00000E+00  1.0000  2.3143E-09
Zone T= "2.03041360E+05 sec" I=       1 J=       1 K=       1 F=Point
       0.1000       0.5000      -0.5000  8.05900E+02  190.000  0.00000E+00  1.0000  2.3143E-09
Zone T= "2.07361360E+05 sec" I=       1 J=       1 K=       1 F=Point
       0.1000       0.5000      -0.5000  8.05900E+02  190.000  0.00000E+00  1.0000  2.3143E-09
Zone T= "2.11681360E+05 sec" I=       1 J=       1 K=       1 F=Point
       0.1000       0.5000      -0.5000  8.05900E+02  190.000  0.00000E+00  1.0000  2.3143E-09
Zone T= "2.16001360E+05 sec" I=       1 J=       1 K=       1 F=Point
       0.1000       0.5000      -0.5000  8.05900E+02  190.000  0.00000E+00  1.0000  2.3142E-09
Zone T= "2.20321360E+05 sec" I=       1 J=       1 K=       1 F=Point
       0.1000       0.5000      -0.5000  8.05900E+02  190.000  0.00000E+00  1.0000  2.3142E-09
Zone T= "2.24641360E+05 sec" I=       1 J=       1 K=       1 F=Point
       0.1000       0.5000      -0.5000  8.05900E+02  190.000  0.00000E+00  1.0000  2.3142E-09
Zone T= "2.28961360E+05 sec" I=       1 J=       1 K=       1 F=Point
       0.1000       0.5000      -0.5000  8.05900E+02  190.000  0.00000E+00  1.0000  2.3142E-09
Zone T= "2.33281360E+05 sec" I=       1 J=       1 K=       1 F=Point
       0.1000       0.5000      -0.5000  8.05900E+02  190.000  0.00000E+00  1.0000  2.3142E-09
Zone T= "2.37601360E+05 sec" I=       1 J=       1 K=       1 F=Point
       0.1000       0.5000      -0.5000  8.05900E+02  190.000  0.00000E+00  1.0000  2.3142E-09
Zone T= "2.41921360E+05 sec" I=       1 J=       1 K=       1 F=Point
       0.1000       0.5000      -0.5000  8.05900E+02  190.000  0.00000E+00  1.0000  2.3142E-09
Zone T= "2.46241360E+05 sec" I=       1 J=       1 K=       1 F=Point
       0.1000       0.5000      -0.5000  8.05900E+02  190.000  0.00000E+00  1.0000  2.3142E-09
Zone T= "2.50561360E+05 sec" I=       1 J=       1 K=       1 F=Point
       0.1000       0.5000      -0.5000  8.05900E+02  190.000  0.00000E+00  1.0000  2.3142E-09
Zone T= "2.54881360E+05 sec" I=       1 J=       1 K=       1 F=Point
       0.1000       0.5000      -0.5000  8.05900E+02  190.000  0.00000E+00  1.0000  2.3142E-09
Zone T= "2.59201360E+05 sec" I=       1 J=       1 K=       1 F=Point
       0.1000       0.5000      -0.5000  8.05900E+02  190.000  0.00000E+00  1.0000  2.3142E-09
Zone T= "2.63521360E+05 sec" I=       1 J=       1 K=       1 F=Point
       0.1000       0.5000      -0.5000  8.05900E+02  190.000  0.00000E+00  1.0000  2.3142E-09
Zone T= "2.67841360E+05 sec" I=       1 J=       1 K=       1 F=Point
       0.1000       0.5000      -0.5000  8.05900E+02  190.000  0.00000E+00  1.0000  2.3142E-09
Zone T= "2.72161360E+05 sec" I=       1 J=       1 K=       1 F=Point
       0.1000       0.5000      -0.5000  8.05900E+02  190.000  0.00000E+00  1.0000  2.3142E-09
Zone T= "2.76481360E+05 sec" I=       1 J=       1 K=       1 F=Point
       0.1000       0.5000      -0.5000  8.05900E+02  190.000  0.00000E+00  1.0000  2.3142E-09
Zone T= "2.80801360E+05 sec" I=       1 J=       1 K=       1 F=Point
       0.1000       0.5000      -0.5000  8.05900E+02  190.000  0.00000E+00  1.0000  2.3142E-09
Zone T= "2.85121360E+05 sec" I=       1 J=       1 K=       1 F=Point
       0.1000       0.5000      -0.5000  8.05900E+02  190.000  0.00000E+00  1.0000  2.3142E-09
Zone T= "2.89441360E+05 sec" I=       1 J=       1 K=       1 F=Point
       0.1000       0.5000      -0.5000  8.05900E+02  190.000  0.00000E+00  1.0000  2.3142E-09
Zone T= "2.93761360E+05 sec" I=       1 J=       1 K=       1 F=Point
       0.1000       0.5000      -0.5000  8.05900E+02  190.000  0.00000E+00  1.0000  2.3142E-09
Zone T= "2.98081360E+05 sec" I=       1 J=       1 K=       1 F=Point
       0.1000       0.5000      -0.5000  8.05900E+02  190.000  0.00000E+00  1.0000  2.3142E-09
Zone T= "3.02401360E+05 sec" I=       1 J=       1 K=       1 F=Point
       0.1000       0.5000      -0.5000  8.05900E+02  190.000  0.00000E+00  1.0000  2.3142E-09
Zone T= "3.06721360E+05 sec" I=       1 J=       1 K=       1 F=Point
       0.1000       0.5000      -0.5000  8.05900E+02  190.000  0.00000E+00  1.0000  2.3142E-09
Zone T= "3.11041360E+05 sec" I=       1 J=       1 K=       1 F=Point
       0.1000       0.5000      -0.5000  8.05900E+02  190.000  0.00000E+00  1.0000  2.3141E-09
Zone T= "3.15361360E+05 sec" I=       1 J=       1 K=       1 F=Point
       0.1000       0.5000      -0.5000  8.05900E+02  190.000  0.00000E+00  1.0000  2.3141E-09
Zone T= "3.19681360E+05 sec" I=       1 J=       1 K=       1 F=Point
       0.1000       0.5000      -0.5000  8.05900E+02  190.000  0.00000E+00  1.0000  2.3141E-09
Zone T= "3.24001360E+05 sec" I=       1 J=       1 K=       1 F=Point
       0.1000       0.5000      -0.5000  8.05900E+02  190.000  0.00000E+00  1.0000  2.3141E-09
Zone T= "3.28321360E+05 sec" I=       1 J=       1 K=       1 F=Point
       0.1000       0.5000      -0.5000  8.05900E+02  190.000  0.00000E+00  1.0000  2.3141E-09
Zone T= "3.32641360E+05 sec" I=       1 J=       1 K=       1 F=Point
       0.1000       0.5000      -0.5000  8.05900E+02  190.000  0.00000E+00  1.0000  2.3141E-09
Zone T= "3.36961360E+05 sec" I=       1 J=       1 K=       1 F=Point
       0.1000       0.5000      -0.5000  8.05900E+02  190.000  0.00000E+00  1.0000  2.3141E-09
Zone T= "3.41281360E+05 sec" I=       1 J=       1 K=       1 F=Point
       0.1000       0.5000      -0.5000  8.05900E+02  190.000  0.00000E+00  1.0000  2.3141E-09
Zone T= "3.45601360E+05 sec" I=       1 J=       1 K=       1 F=Point
       0.1000       0.5000      -0.5000  8.05900E+02  190.000  0.00000E+00  1.0000  2.3141E-09
Zone T= "3.49921360E+05 sec" I=       1 J=       1 K=       1 F=Point
       0.1000       0.5000      -0.5000  8.05900E+02  190.000  0.00000E+00  1.0000  2.3141E-09
Zone T= "3.54241360E+05 sec" I=       1 J=       1 K=       1 F=Point
       0.1000       0.5000      -0.5000  8.05900E+02  190.000  0.00000E+00  1.0000  2.3141E-09
Zone T= "3.58561360E+05 sec" I=       1 J=       1 K=       1 F=Point
       0.1000       0.5000      -0.5000  8.05900E+02  190.000  0.00000E+00  1.0000  2.3141E-09
Zone T= "3.62881360E+05 sec" I=       1 J=       1 K=       1 F=Point
       0.1000       0.5000      -0.5000  8.05900E+02  190.000  0.00000E+00  1.0000  2.3141E-09
Zone T= "3.67201360E+05 sec" I=       1 J=       1 K=       1 F=Point
       0.1000       0.5000      -0.5000  8.05900E+02  190.000  0.00000E+00  1.0000  2.3141E-09
Zone T= "3.71521360E+05 sec" I=       1 J=       1 K=       1 F=Point
       0.1000       0.5000      -0.5000  8.05900E+02  190.000  0.00000E+00  1.0000  2.3141E-09
Zone T= "3.75841360E+05 sec" I=       1 J=       1 K=       1 F=Point
       0.1000       0.5000      -0.5000  8.05900E+02  190.000  0.00000E+00  1.0000  2.3141E-09
Zone T= "3.80161360E+05 sec" I=       1 J=       1 K=       1 F=Point
       0.1000       0.5000      -0.5000  8.05900E+02  190.000  0.00000E+00  1.0000  2.3141E-09
Zone T= "3.84481360E+05 sec" I=       1 J=       1 K=       1 F=Point
       0.1000       0.5000      -0.5000  8.05900E+02  190.000  0.00000E+00  1.0000  2.3141E-09
Zone T= "3.88801360E+05 sec" I=       1 J=       1 K=       1 F=Point
       0.1000       0.5000      -0.5000  8.05900E+02  190.000  0.00000E+00  1.0000  2.3141E-09
Zone T= "3.93121360E+05 sec" I=       1 J=       1 K=       1 F=Point
       0.1000       0.5000      -0.5000  8.05900E+02  190.000  0.00000E+00  1.0000  2.3141E-09
Zone T= "3.97441360E+05 sec" I=       1 J=       1 K=       1 F=Point
       0.1000       0.5000      -0.5000  8.05900E+02  190.000  0.00000E+00  1.0000  2.3141E-09
Zone T= "4.01761360E+05 sec" I=       1 J=       1 K=       1 F=Point
       0.1000       0.5000      -0.5000  8.05900E+02  190.000  0.00000E+00  1.0000  2.3141E-09
Zone T= "4.06081360E+05 sec" I=       1 J=       1 K=       1 F=Point
       0.1000       0.5000      -0.5000  8.05900E+02  190.000  0.00000E+00  1.0000  2.3141E-09
Zone T= "4.10401360E+05 sec" I=       1 J=       1 K=       1 F=Point
       0.1000       0.5000      -0.5000  8.05900E+02  190.000  0.00000E+00  1.0000  2.3141E-09
Zone T= "4.14721360E+05 sec" I=       1 J=       1 K=       1 F=Point
       0.1000       0.5000      -0.5000  8.05900E+02  190.000  0.00000E+00  1.0000  2.3141E-09
Zone T= "4.19041360E+05 sec" I=       1 J=       1 K=       1 F=Point
       0.1000       0.5000      -0.5000  8.05900E+02  190.000  0.00000E+00  1.0000  2.3141E-09
Zone T= "4.23361360E+05 sec" I=       1 J=       1 K=       1 F=Point
       0.1000       0.5000      -0.5000  8.05900E+02  190.000  0.00000E+00  1.0000  2.3141E-09
Zone T= "4.27681360E+05 sec" I=       1 J=       1 K=       1 F=Point
       0.1000       0.5000      -0.5000  8.05900E+02  190.000  0.00000E+00  1.0000  2.3141E-09
Zone T= "4.32001360E+05 sec" I=       1 J=       1 K=       1 F=Point
       0.1000       0.5000      -0.5000  8.05900E+02  190.000  0.00000E+00  1.0000  2.3141E-09
Zone T= "4.36321360E+05 sec" I=       1 J=       1 K=       1 F=Point
       0.1000       0.5000      -0.5000  8.05900E+02  190.000  0.00000E+00  1.0000  2.3141E-09
Zone T= "4.40641360E+05 sec" I=       1 J=       1 K=       1 F=Point
       0.1000       0.5000      -0.5000  8.05900E+02  190.000  0.00000E+00  1.0000  2.3141E-09
Zone T= "4.44961360E+05 sec" I=       1 J=       1 K=       1 F=Point
       0.1000       0.5000      -0.5000  8.05900E+02  190.000  0.00000E+00  1.0000  2.3141E-09
Zone T= "4.49281360E+05 sec" I=       1 J=       1 K=       1 F=Point
       0.1000       0.5000      -0.5000  8.05900E+02  190.000  0.00000E+00  1.0000  2.3141E-09
Zone T= "4.53601360E+05 sec" I=       1 J=       1 K=       1 F=Point
       0.1000       0.5000      -0.5000  8.05900E+02  190.000  0.00000E+00  1.0000  2.3141E-09
Zone T= "4.57921360E+05 sec" I=       1 J=       1 K=       1 F=Point
       0.1000       0.5000      -0.5000  8.05900E+02  190.000  0.00000E+00  1.0000  2.3141E-09
Zone T= "4.62241360E+05 sec" I=       1 J=       1 K=       1 F=Point
       0.1000       0.5000      -0.5000  8.05900E+02  190.000  0.00000E+00  1.0000  2.3141E-09
Zone T= "4.66561360E+05 sec" I=       1 J=       1 K=       1 F=Point
       0.1000       0.5000      -0.5000  8.05900E+02  190.000  0.00000E+00  1.0000  2.3141E-09
Zone T= "4.70881360E+05 sec" I=       1 J=       1 K=       1 F=Point
       0.1000       0.5000      -0.5000  8.05900E+02  190.000  0.00000E+00  1.0000  2.3141E-09
Zone T= "4.75201360E+05 sec" I=       1 J=       1 K=       1 F=Point
       0.1000       0.5000      -0.5000  8.05900E+02  190.000  0.00000E+00  1.0000  2.3141E-09
Zone T= "4.79521360E+05 sec" I=       1 J=       1 K=       1 F=Point
       0.1000       0.5000      -0.5000  8.05900E+02  190.000  0.00000E+00  1.0000  2.3141E-09
Zone T= "4.83841360E+05 sec" I=       1 J=       1 K=       1 F=Point
       0.1000       0.5000      -0.5000  8.05900E+02  190.000  0.00000E+00  1.0000  2.3141E-09
Zone T= "4.88161360E+05 sec" I=       1 J=       1 K=       1 F=Point
       0.1000       0.5000      -0.5000  8.05900E+02  190.000  0.00000E+00  1.0000  2.3141E-09
Zone T= "4.92481360E+05 sec" I=       1 J=       1 K=       1 F=Point
       0.1000       0.5000      -0.5000  8.05900E+02  190.000  0.00000E+00  1.0000  2.3141E-09
Zone T= "4.96801360E+05 sec" I=       1 J=       1 K=       1 F=Point
       0.1000       0.5000      -0.5000  8.05900E+02  190.000  0.00000E+00  1.0000  2.3141E-09
Zone T= "5.01121360E+05 sec" I=       1 J=       1 K=       1 F=Point
       0.1000       0.5000      -0.5000  8.05900E+02  190.000  0.00000E+00  1.0000  2.3141E-09
Zone T= "5.05441360E+05 sec" I=       1 J=       1 K=       1 F=Point
       0.1000       0.5000      -0.5000  8.05900E+02  190.000  0.00000E+00  1.0000  2.3141E-09
Zone T= "5.09761360E+05 sec" I=       1 J=       1 K=       1 F=Point
       0.1000       0.5000      -0.5000  8.05900E+02  190.000  0.00000E+00  1.0000  2.3141E-09
Zone T= "5.14081360E+05 sec" I=       1 J=       1 K=       1 F=Point
       0.1000       0.5000      -0.5000  8.05900E+02  190.000  0.00000E+00  1.0000  2.3141E-09
Zone T= "5.18401360E+05 sec" I=       1 J=       1 K=       1 F=Point
       0.1000       0.5000      -0.5000  8.05900E+02  190.000  0.00000E+00  1.0000  2.3141E-09
Zone T= "5.22721360E+05 sec" I=       1 J=       1 K=       1 F=Point
       0.1000       0.5000      -0.5000  8.05900E+02  190.000  0.00000E+00  1.0000  2.3141E-09
Zone T= "5.27041360E+05 sec" I=       1 J=       1 K=       1 F=Point
       0.1000       0.5000      -0.5000  8.05900E+02  190.000  0.00000E+00  1.0000  2.3141E-09
Zone T= "5.31361360E+05 sec" I=       1 J=       1 K=       1 F=Point
       0.1000       0.5000      -0.5000  8.05900E+02  190.000  0.00000E+00  1.0000  2.3141E-09
Zone T= "5.35681360E+05 sec" I=       1 J=       1 K=       1 F=Point
       0.1000       0.5000      -0.5000  8.05900E+02  190.000  0.00000E+00  1.0000  2.3141E-09
Zone T= "5.40001360E+05 sec" I=       1 J=       1 K=       1 F=Point
       0.1000       0.5000      -0.5000  8.05900E+02  190.000  0.00000E+00  1.0000  2.3141E-09
Zone T= "5.44321360E+05 sec" I=       1 J=       1 K=       1 F=Point
       0.1000       0.5000      -0.5000  8.05900E+02  190.000  0.00000E+00  1.0000  2.3141E-09
Zone T= "5.48641360E+05 sec" I=       1 J=       1 K=       1 F=Point
       0.1000       0.5000      -0.5000  8.05900E+02  190.000  0.00000E+00  1.0000  2.3141E-09
Zone T= "5.52961360E+05 sec" I=       1 J=       1 K=       1 F=Point
       0.1000       0.5000      -0.5000  8.05900E+02  190.000  0.00000E+00  1.0000  2.3141E-09
Zone T= "5.57281360E+05 sec" I=       1 J=       1 K=       1 F=Point
       0.1000       0.5000      -0.5000  8.05900E+02  190.000  0.00000E+00  1.0000  2.3141E-09
Zone T= "5.61601360E+05 sec" I=       1 J=       1 K=       1 F=Point
       0.1000       0.5000      -0.5000  8.05900E+02  190.000  0.00000E+00  1.0000  2.3141E-09
Zone T= "5.65921360E+05 sec" I=       1 J=       1 K=       1 F=Point
       0.1000       0.5000      -0.5000  8.05900E+02  190.000  0.00000E+00  1.0000  2.3141E-09
Zone T= "5.70241360E+05 sec" I=       1 J=       1 K=       1 F=Point
       0.1000       0.5000      -0.5000  8.05900E+02  190.000  0.00000E+00  1.0000  2.3141E-09
Zone T= "5.74561360E+05 sec" I=       1 J=       1 K=       1 F=Point
       0.1000       0.5000      -0.5000  8.05900E+02  190.000  0.00000E+00  1.0000  2.3141E-09
Zone T= "5.78881360E+05 sec" I=       1 J=       1 K=       1 F=Point
       0.1000       0.5000      -0.5000  8.05900E+02  190.000  0.00000E+00  1.0000  2.3141E-09
Zone T= "5.83201360E+05 sec" I=       1 J=       1 K=       1 F=Point
       0.1000       0.5000      -0.5000  8.05900E+02  190.000  0.00000E+00  1.0000  2.3141E-09
Zone T= "5.87521360E+05 sec" I=       1 J=       1 K=       1 F=Point
       0.1000       0.5000      -0.5000  8.05900E+02  190.000  0.00000E+00  1.0000  2.3140E-09
Zone T= "5.91841360E+05 sec" I=       1 J=       1 K=       1 F=Point
       0.1000       0.5000      -0.5000  8.05900E+02  190.000  0.00000E+00  1.0000  2.3140E-09
Zone T= "5.96161360E+05 sec" I=       1 J=       1 K=       1 F=Point
       0.1000       0.5000      -0.5000  8.05900E+02  190.000  0.00000E+00  1.0000  2.3140E-09
Zone T= "6.00481360E+05 sec" I=       1 J=       1 K=       1 F=Point
       0.1000       0.5000      -0.5000  8.05900E+02  190.000  0.00000E+00  1.0000  2.3140E-09
Zone T= "6.04801360E+05 sec" I=       1 J=       1 K=       1 F=Point
       0.1000       0.5000      -0.5000  8.05900E+02  190.000  0.00000E+00  1.0000  2.3140E-09
Zone T= "6.09121360E+05 sec" I=       1 J=       1 K=       1 F=Point
       0.1000       0.5000      -0.5000  8.05900E+02  190.000  0.00000E+00  1.0000  2.3140E-09
Zone T= "6.13441360E+05 sec" I=       1 J=       1 K=       1 F=Point
       0.1000       0.5000      -0.5000  8.05900E+02  190.000  0.00000E+00  1.0000  2.3140E-09
Zone T= "6.17761360E+05 sec" I=       1 J=       1 K=       1 F=Point
       0.1000       0.5000      -0.5000  8.05900E+02  190.000  0.00000E+00  1.0000  2.3140E-09
Zone T= "6.22081360E+05 sec" I=       1 J=       1 K=       1 F=Point
       0.1000       0.5000      -0.5000  8.05900E+02  190.000  0.00000E+00  1.0000  2.3140E-09
Zone T= "6.26401360E+05 sec" I=       1 J=       1 K=       1 F=Point
       0.1000       0.5000      -0.5000  8.05900E+02  190.000  0.00000E+00  1.0000  2.3140E-09
Zone T= "6.30721360E+05 sec" I=       1 J=       1 K=       1 F=Point
       0.1000       0.5000      -0.5000  8.05900E+02  190.000  0.00000E+00  1.0000  2.3140E-09
Zone T= "6.35041360E+05 sec" I=       1 J=       1 K=       1 F=Point
       0.1000       0.5000      -0.5000  8.05900E+02  190.000  0.00000E+00  1.0000  2.3140E-09
Zone T= "6.39361360E+05 sec" I=       1 J=       1 K=       1 F=Point
       0.1000       0.5000      -0.5000  8.05900E+02  190.000  0.00000E+00  1.0000  2.3140E-09
Zone T= "6.43681360E+05 sec" I=       1 J=       1 K=       1 F=Point
       0.1000       0.5000      -0.5000  8.05900E+02  190.000  0.00000E+00  1.0000  2.3140E-09
Zone T= "6.48001360E+05 sec" I=       1 J=       1 K=       1 F=Point
       0.1000       0.5000      -0.5000  8.05900E+02  190.000  0.00000E+00  1.0000  2.3140E-09
Zone T= "6.52321360E+05 sec" I=       1 J=       1 K=       1 F=Point
       0.1000       0.5000      -0.5000  8.05900E+02  190.000  0.00000E+00  1.0000  2.3140E-09
Zone T= "6.56641360E+05 sec" I=       1 J=       1 K=       1 F=Point
       0.1000       0.5000      -0.5000  8.05900E+02  190.000  0.00000E+00  1.0000  2.3140E-09
Zone T= "6.60961360E+05 sec" I=       1 J=       1 K=       1 F=Point
       0.1000       0.5000      -0.5000  8.05900E+02  190.000  0.00000E+00  1.0000  2.3140E-09
Zone T= "6.65281360E+05 sec" I=       1 J=       1 K=       1 F=Point
       0.1000       0.5000      -0.5000  8.05900E+02  190.000  0.00000E+00  1.0000  2.3140E-09
Zone T= "6.69601360E+05 sec" I=       1 J=       1 K=       1 F=Point
       0.1000       0.5000      -0.5000  8.05900E+02  190.000  0.00000E+00  1.0000  2.3140E-09
Zone T= "6.73921360E+05 sec" I=       1 J=       1 K=       1 F=Point
       0.1000       0.5000      -0.5000  8.05900E+02  190.000  0.00000E+00  1.0000  2.3140E-09
Zone T= "6.78241360E+05 sec" I=       1 J=       1 K=       1 F=Point
       0.1000       0.5000      -0.5000  8.05900E+02  190.000  0.00000E+00  1.0000  2.3140E-09
Zone T= "6.82561360E+05 sec" I=       1 J=       1 K=       1 F=Point
       0.1000       0.5000      -0.5000  8.05900E+02  190.000  0.00000E+00  1.0000  2.3140E-09
Zone T= "6.86881360E+05 sec" I=       1 J=       1 K=       1 F=Point
       0.1000       0.5000      -0.5000  8.05900E+02  190.000  0.00000E+00  1.0000  2.3140E-09
Zone T= "6.91201360E+05 sec" I=       1 J=       1 K=       1 F=Point
       0.1000       0.5000      -0.5000  8.05900E+02  190.000  0.00000E+00  1.0000  2.3140E-09
Zone T= "6.95521360E+05 sec" I=       1 J=       1 K=       1 F=Point
       0.1000       0.5000      -0.5000  8.05900E+02  190.000  0.00000E+00  1.0000  2.3140E-09
Zone T= "6.99841360E+05 sec" I=       1 J=       1 K=       1 F=Point
       0.1000       0.5000      -0.5000  8.05900E+02  190.000  0.00000E+00  1.0000  2.3140E-09
Zone T= "7.04161360E+05 sec" I=       1 J=       1 K=       1 F=Point
       0.1000       0.5000      -0.5000  8.05900E+02  190.000  0.00000E+00  1.0000  2.3140E-09
Zone T= "7.08481360E+05 sec" I=       1 J=       1 K=       1 F=Point
       0.1000       0.5000      -0.5000  8.05900E+02  190.000  0.00000E+00  1.0000  2.3140E-09
Zone T= "7.12801360E+05 sec" I=       1 J=       1 K=       1 F=Point
       0.1000       0.5000      -0.5000  8.05900E+02  190.000  0.00000E+00  1.0000  2.3140E-09
Zone T= "7.17121360E+05 sec" I=       1 J=       1 K=       1 F=Point
       0.1000       0.5000      -0.5000  8.05900E+02  190.000  0.00000E+00  1.0000  2.3140E-09
Zone T= "7.21441360E+05 sec" I=       1 J=       1 K=       1 F=Point
       0.1000       0.5000      -0.5000  8.05900E+02  190.000  0.00000E+00  1.0000  2.3140E-09
Zone T= "7.25761360E+05 sec" I=       1 J=       1 K=       1 F=Point
       0.1000       0.5000      -0.5000  8.05900E+02  190.000  0.00000E+00  1.0000  2.3140E-09
Zone T= "7.30081360E+05 sec" I=       1 J=       1 K=       1 F=Point
       0.1000       0.5000      -0.5000  8.05900E+02  190.000  0.00000E+00  1.0000  2.3140E-09
Zone T= "7.34401360E+05 sec" I=       1 J=       1 K=       1 F=Point
       0.1000       0.5000      -0.5000  8.05900E+02  190.000  0.00000E+00  1.0000  2.3140E-09
Zone T= "7.38721360E+05 sec" I=       1 J=       1 K=       1 F=Point
       0.1000       0.5000      -0.5000  8.05900E+02  190.000  0.00000E+00  1.0000  2.3140E-09
Zone T= "7.43041360E+05 sec" I=       1 J=       1 K=       1 F=Point
       0.1000       0.5000      -0.5000  8.05900E+02  190.000  0.00000E+00  1.0000  2.3140E-09
Zone T= "7.47361360E+05 sec" I=       1 J=       1 K=       1 F=Point
       0.1000       0.5000      -0.5000  8.05900E+02  190.000  0.00000E+00  1.0000  2.3140E-09
Zone T= "7.51681360E+05 sec" I=       1 J=       1 K=       1 F=Point
       0.1000       0.5000      -0.5000  8.05900E+02  190.000  0.00000E+00  1.0000  2.3140E-09
Zone T= "7.56001360E+05 sec" I=       1 J=       1 K=       1 F=Point
       0.1000       0.5000      -0.5000  8.05900E+02  190.000  0.00000E+00  1.0000  2.3140E-09
Zone T= "7.60321360E+05 sec" I=       1 J=       1 K=       1 F=Point
       0.1000       0.5000      -0.5000  8.05900E+02  190.000  0.00000E+00  1.0000  2.3140E-09
Zone T= "7.64641360E+05 sec" I=       1 J=       1 K=       1 F=Point
       0.1000       0.5000      -0.5000  8.05900E+02  190.000  0.00000E+00  1.0000  2.3140E-09
Zone T= "7.68961360E+05 sec" I=       1 J=       1 K=       1 F=Point
       0.1000       0.5000      -0.5000  8.05900E+02  190.000  0.00000E+00  1.0000  2.3140E-09
Zone T= "7.73281360E+05 sec" I=       1 J=       1 K=       1 F=Point